TITLE="BOUNDARY-LAYER"
VARIABLES = x,y,z , Eta , rho , T, u, v
ZONE T="T",I= 1,J=12,K=1
 0.10000E+01 0.00000E+00 0.10000E+01 0.00000E+00 0.12642E+01 0.27857E+03 0.00000E+00
 0.10000E+01 0.18157E-05 0.10000E+01 0.20000E-01 0.12642E+01 0.27857E+03 0.10838E+01
 0.10000E+01 0.36314E-05 0.10000E+01 0.40000E-01 0.12642E+01 0.27857E+03 0.21676E+01
 0.10000E+01 0.54471E-05 0.10000E+01 0.60000E-01 0.12642E+01 0.27857E+03 0.32513E+01
 0.10000E+01 0.72628E-05 0.10000E+01 0.80000E-01 0.12642E+01 0.27856E+03 0.43351E+01
 0.10000E+01 0.90785E-05 0.10000E+01 0.10000E+00 0.12643E+01 0.27856E+03 0.54188E+01
 0.10000E+01 0.10894E-04 0.10000E+01 0.12000E+00 0.12643E+01 0.27855E+03 0.65025E+01
 0.10000E+01 0.12710E-04 0.10000E+01 0.14000E+00 0.12643E+01 0.27855E+03 0.75860E+01
 0.10000E+01 0.14525E-04 0.10000E+01 0.16000E+00 0.12643E+01 0.27854E+03 0.86695E+01
 0.10000E+01 0.16341E-04 0.10000E+01 0.18000E+00 0.12644E+01 0.27853E+03 0.97528E+01
 0.10000E+01 0.18156E-04 0.10000E+01 0.20000E+00 0.12644E+01 0.27853E+03 0.10836E+02
 0.10000E+01 0.19972E-04 0.10000E+01 0.22000E+00 0.12644E+01 0.27852E+03 0.11919E+02
 0.10000E+01 0.21787E-04 0.10000E+01 0.24000E+00 0.12645E+01 0.27851E+03 0.13002E+02
 0.10000E+01 0.23602E-04 0.10000E+01 0.26000E+00 0.12645E+01 0.27850E+03 0.14084E+02
 0.10000E+01 0.25418E-04 0.10000E+01 0.28000E+00 0.12646E+01 0.27849E+03 0.15166E+02
 0.10000E+01 0.27233E-04 0.10000E+01 0.30000E+00 0.12646E+01 0.27847E+03 0.16248E+02
 0.10000E+01 0.29048E-04 0.10000E+01 0.32000E+00 0.12647E+01 0.27846E+03 0.17329E+02
 0.10000E+01 0.30863E-04 0.10000E+01 0.34000E+00 0.12648E+01 0.27845E+03 0.18409E+02
 0.10000E+01 0.32678E-04 0.10000E+01 0.36000E+00 0.12648E+01 0.27843E+03 0.19489E+02
 0.10000E+01 0.34492E-04 0.10000E+01 0.38000E+00 0.12649E+01 0.27842E+03 0.20569E+02
 0.10000E+01 0.36307E-04 0.10000E+01 0.40000E+00 0.12650E+01 0.27840E+03 0.21647E+02
 0.10000E+01 0.38122E-04 0.10000E+01 0.42000E+00 0.12651E+01 0.27838E+03 0.22725E+02
 0.10000E+01 0.39936E-04 0.10000E+01 0.44000E+00 0.12651E+01 0.27837E+03 0.23802E+02
 0.10000E+01 0.41750E-04 0.10000E+01 0.46000E+00 0.12652E+01 0.27835E+03 0.24877E+02
 0.10000E+01 0.43565E-04 0.10000E+01 0.48000E+00 0.12653E+01 0.27833E+03 0.25952E+02
 0.10000E+01 0.45379E-04 0.10000E+01 0.50000E+00 0.12654E+01 0.27831E+03 0.27026E+02
 0.10000E+01 0.47193E-04 0.10000E+01 0.52000E+00 0.12655E+01 0.27829E+03 0.28098E+02
 0.10000E+01 0.49006E-04 0.10000E+01 0.54000E+00 0.12656E+01 0.27826E+03 0.29169E+02
 0.10000E+01 0.50820E-04 0.10000E+01 0.56000E+00 0.12657E+01 0.27824E+03 0.30238E+02
 0.10000E+01 0.52634E-04 0.10000E+01 0.58000E+00 0.12658E+01 0.27822E+03 0.31306E+02
 0.10000E+01 0.54447E-04 0.10000E+01 0.60000E+00 0.12659E+01 0.27819E+03 0.32372E+02
 0.10000E+01 0.56260E-04 0.10000E+01 0.62000E+00 0.12660E+01 0.27817E+03 0.33436E+02
 0.10000E+01 0.58073E-04 0.10000E+01 0.64000E+00 0.12662E+01 0.27814E+03 0.34498E+02
 0.10000E+01 0.59886E-04 0.10000E+01 0.66000E+00 0.12663E+01 0.27811E+03 0.35558E+02
 0.10000E+01 0.61699E-04 0.10000E+01 0.68000E+00 0.12664E+01 0.27809E+03 0.36616E+02
 0.10000E+01 0.63511E-04 0.10000E+01 0.70000E+00 0.12665E+01 0.27806E+03 0.37672E+02
 0.10000E+01 0.65324E-04 0.10000E+01 0.72000E+00 0.12667E+01 0.27803E+03 0.38725E+02
 0.10000E+01 0.67136E-04 0.10000E+01 0.74000E+00 0.12668E+01 0.27800E+03 0.39775E+02
 0.10000E+01 0.68948E-04 0.10000E+01 0.76000E+00 0.12669E+01 0.27797E+03 0.40823E+02
 0.10000E+01 0.70759E-04 0.10000E+01 0.78000E+00 0.12671E+01 0.27794E+03 0.41868E+02
 0.10000E+01 0.72571E-04 0.10000E+01 0.80000E+00 0.12672E+01 0.27791E+03 0.42910E+02
 0.10000E+01 0.74382E-04 0.10000E+01 0.82000E+00 0.12674E+01 0.27787E+03 0.43948E+02
 0.10000E+01 0.76193E-04 0.10000E+01 0.84000E+00 0.12675E+01 0.27784E+03 0.44984E+02
 0.10000E+01 0.78004E-04 0.10000E+01 0.86000E+00 0.12677E+01 0.27781E+03 0.46016E+02
 0.10000E+01 0.79815E-04 0.10000E+01 0.88000E+00 0.12678E+01 0.27777E+03 0.47044E+02
 0.10000E+01 0.81625E-04 0.10000E+01 0.90000E+00 0.12680E+01 0.27774E+03 0.48068E+02
 0.10000E+01 0.83435E-04 0.10000E+01 0.92000E+00 0.12682E+01 0.27770E+03 0.49089E+02
 0.10000E+01 0.85245E-04 0.10000E+01 0.93999E+00 0.12683E+01 0.27766E+03 0.50105E+02
 0.10000E+01 0.87055E-04 0.10000E+01 0.95999E+00 0.12685E+01 0.27763E+03 0.51117E+02
 0.10000E+01 0.88864E-04 0.10000E+01 0.97999E+00 0.12687E+01 0.27759E+03 0.52125E+02
 0.10000E+01 0.90674E-04 0.10000E+01 0.99999E+00 0.12688E+01 0.27755E+03 0.53128E+02
 0.10000E+01 0.92483E-04 0.10000E+01 0.10200E+01 0.12690E+01 0.27751E+03 0.54127E+02
 0.10000E+01 0.94291E-04 0.10000E+01 0.10400E+01 0.12692E+01 0.27747E+03 0.55121E+02
 0.10000E+01 0.96100E-04 0.10000E+01 0.10600E+01 0.12694E+01 0.27743E+03 0.56109E+02
 0.10000E+01 0.97908E-04 0.10000E+01 0.10800E+01 0.12696E+01 0.27739E+03 0.57092E+02
 0.10000E+01 0.99716E-04 0.10000E+01 0.11000E+01 0.12698E+01 0.27735E+03 0.58070E+02
 0.10000E+01 0.10152E-03 0.10000E+01 0.11200E+01 0.12700E+01 0.27731E+03 0.59042E+02
 0.10000E+01 0.10333E-03 0.10000E+01 0.11400E+01 0.12701E+01 0.27727E+03 0.60009E+02
 0.10000E+01 0.10514E-03 0.10000E+01 0.11600E+01 0.12703E+01 0.27722E+03 0.60970E+02
 0.10000E+01 0.10694E-03 0.10000E+01 0.11800E+01 0.12705E+01 0.27718E+03 0.61924E+02
 0.10000E+01 0.10875E-03 0.10000E+01 0.12000E+01 0.12707E+01 0.27714E+03 0.62873E+02
 0.10000E+01 0.11056E-03 0.10000E+01 0.12200E+01 0.12709E+01 0.27709E+03 0.63815E+02
 0.10000E+01 0.11236E-03 0.10000E+01 0.12400E+01 0.12711E+01 0.27705E+03 0.64750E+02
 0.10000E+01 0.11417E-03 0.10000E+01 0.12600E+01 0.12714E+01 0.27700E+03 0.65679E+02
 0.10000E+01 0.11597E-03 0.10000E+01 0.12800E+01 0.12716E+01 0.27696E+03 0.66601E+02
 0.10000E+01 0.11778E-03 0.10000E+01 0.13000E+01 0.12718E+01 0.27691E+03 0.67515E+02
 0.10000E+01 0.11958E-03 0.10000E+01 0.13200E+01 0.12720E+01 0.27687E+03 0.68423E+02
 0.10000E+01 0.12139E-03 0.10000E+01 0.13400E+01 0.12722E+01 0.27682E+03 0.69323E+02
 0.10000E+01 0.12319E-03 0.10000E+01 0.13600E+01 0.12724E+01 0.27677E+03 0.70216E+02
 0.10000E+01 0.12500E-03 0.10000E+01 0.13800E+01 0.12726E+01 0.27673E+03 0.71101E+02
 0.10000E+01 0.12680E-03 0.10000E+01 0.14000E+01 0.12728E+01 0.27668E+03 0.71978E+02
 0.10000E+01 0.12860E-03 0.10000E+01 0.14200E+01 0.12731E+01 0.27663E+03 0.72847E+02
 0.10000E+01 0.13041E-03 0.10000E+01 0.14400E+01 0.12733E+01 0.27659E+03 0.73709E+02
 0.10000E+01 0.13221E-03 0.10000E+01 0.14600E+01 0.12735E+01 0.27654E+03 0.74561E+02
 0.10000E+01 0.13401E-03 0.10000E+01 0.14800E+01 0.12737E+01 0.27649E+03 0.75406E+02
 0.10000E+01 0.13581E-03 0.10000E+01 0.15000E+01 0.12739E+01 0.27644E+03 0.76242E+02
 0.10000E+01 0.13762E-03 0.10000E+01 0.15200E+01 0.12742E+01 0.27639E+03 0.77069E+02
 0.10000E+01 0.13942E-03 0.10000E+01 0.15400E+01 0.12744E+01 0.27635E+03 0.77888E+02
 0.10000E+01 0.14122E-03 0.10000E+01 0.15600E+01 0.12746E+01 0.27630E+03 0.78697E+02
 0.10000E+01 0.14302E-03 0.10000E+01 0.15800E+01 0.12748E+01 0.27625E+03 0.79498E+02
 0.10000E+01 0.14482E-03 0.10000E+01 0.16000E+01 0.12750E+01 0.27620E+03 0.80289E+02
 0.10000E+01 0.14662E-03 0.10000E+01 0.16200E+01 0.12753E+01 0.27615E+03 0.81071E+02
 0.10000E+01 0.14842E-03 0.10000E+01 0.16400E+01 0.12755E+01 0.27610E+03 0.81844E+02
 0.10000E+01 0.15022E-03 0.10000E+01 0.16600E+01 0.12757E+01 0.27606E+03 0.82607E+02
 0.10000E+01 0.15202E-03 0.10000E+01 0.16800E+01 0.12759E+01 0.27601E+03 0.83361E+02
 0.10000E+01 0.15382E-03 0.10000E+01 0.17000E+01 0.12762E+01 0.27596E+03 0.84105E+02
 0.10000E+01 0.15562E-03 0.10000E+01 0.17200E+01 0.12764E+01 0.27591E+03 0.84839E+02
 0.10000E+01 0.15741E-03 0.10000E+01 0.17400E+01 0.12766E+01 0.27586E+03 0.85563E+02
 0.10000E+01 0.15921E-03 0.10000E+01 0.17600E+01 0.12768E+01 0.27581E+03 0.86278E+02
 0.10000E+01 0.16101E-03 0.10000E+01 0.17800E+01 0.12771E+01 0.27577E+03 0.86982E+02
 0.10000E+01 0.16281E-03 0.10000E+01 0.18000E+01 0.12773E+01 0.27572E+03 0.87677E+02
 0.10000E+01 0.16460E-03 0.10000E+01 0.18200E+01 0.12775E+01 0.27567E+03 0.88361E+02
 0.10000E+01 0.16640E-03 0.10000E+01 0.18400E+01 0.12777E+01 0.27562E+03 0.89035E+02
 0.10000E+01 0.16820E-03 0.10000E+01 0.18600E+01 0.12779E+01 0.27558E+03 0.89699E+02
 0.10000E+01 0.16999E-03 0.10000E+01 0.18800E+01 0.12782E+01 0.27553E+03 0.90352E+02
 0.10000E+01 0.17179E-03 0.10000E+01 0.19000E+01 0.12784E+01 0.27548E+03 0.90995E+02
 0.10000E+01 0.17358E-03 0.10000E+01 0.19200E+01 0.12786E+01 0.27544E+03 0.91628E+02
 0.10000E+01 0.17538E-03 0.10000E+01 0.19400E+01 0.12788E+01 0.27539E+03 0.92250E+02
 0.10000E+01 0.17717E-03 0.10000E+01 0.19600E+01 0.12790E+01 0.27534E+03 0.92862E+02
 0.10000E+01 0.17897E-03 0.10000E+01 0.19800E+01 0.12792E+01 0.27530E+03 0.93463E+02
 0.10000E+01 0.18076E-03 0.10000E+01 0.20000E+01 0.12794E+01 0.27525E+03 0.94054E+02
 0.10000E+01 0.18256E-03 0.10000E+01 0.20200E+01 0.12797E+01 0.27521E+03 0.94635E+02
 0.10000E+01 0.18435E-03 0.10000E+01 0.20400E+01 0.12799E+01 0.27516E+03 0.95205E+02
 0.10000E+01 0.18614E-03 0.10000E+01 0.20600E+01 0.12801E+01 0.27512E+03 0.95764E+02
 0.10000E+01 0.18794E-03 0.10000E+01 0.20800E+01 0.12803E+01 0.27507E+03 0.96313E+02
 0.10000E+01 0.18973E-03 0.10000E+01 0.21000E+01 0.12805E+01 0.27503E+03 0.96852E+02
 0.10000E+01 0.19152E-03 0.10000E+01 0.21200E+01 0.12807E+01 0.27499E+03 0.97380E+02
 0.10000E+01 0.19331E-03 0.10000E+01 0.21400E+01 0.12809E+01 0.27494E+03 0.97898E+02
 0.10000E+01 0.19511E-03 0.10000E+01 0.21600E+01 0.12811E+01 0.27490E+03 0.98405E+02
 0.10000E+01 0.19690E-03 0.10000E+01 0.21800E+01 0.12813E+01 0.27486E+03 0.98902E+02
 0.10000E+01 0.19869E-03 0.10000E+01 0.22000E+01 0.12815E+01 0.27482E+03 0.99389E+02
 0.10000E+01 0.20048E-03 0.10000E+01 0.22200E+01 0.12817E+01 0.27478E+03 0.99866E+02
 0.10000E+01 0.20227E-03 0.10000E+01 0.22400E+01 0.12818E+01 0.27474E+03 0.10033E+03
 0.10000E+01 0.20406E-03 0.10000E+01 0.22600E+01 0.12820E+01 0.27470E+03 0.10079E+03
 0.10000E+01 0.20585E-03 0.10000E+01 0.22800E+01 0.12822E+01 0.27466E+03 0.10123E+03
 0.10000E+01 0.20764E-03 0.10000E+01 0.23000E+01 0.12824E+01 0.27462E+03 0.10167E+03
 0.10000E+01 0.20943E-03 0.10000E+01 0.23200E+01 0.12826E+01 0.27458E+03 0.10210E+03
 0.10000E+01 0.21122E-03 0.10000E+01 0.23400E+01 0.12828E+01 0.27454E+03 0.10251E+03
 0.10000E+01 0.21301E-03 0.10000E+01 0.23600E+01 0.12829E+01 0.27451E+03 0.10292E+03
 0.10000E+01 0.21480E-03 0.10000E+01 0.23800E+01 0.12831E+01 0.27447E+03 0.10332E+03
 0.10000E+01 0.21659E-03 0.10000E+01 0.24000E+01 0.12833E+01 0.27443E+03 0.10370E+03
 0.10000E+01 0.21838E-03 0.10000E+01 0.24200E+01 0.12834E+01 0.27440E+03 0.10408E+03
 0.10000E+01 0.22017E-03 0.10000E+01 0.24400E+01 0.12836E+01 0.27436E+03 0.10445E+03
 0.10000E+01 0.22195E-03 0.10000E+01 0.24600E+01 0.12838E+01 0.27433E+03 0.10481E+03
 0.10000E+01 0.22374E-03 0.10000E+01 0.24800E+01 0.12839E+01 0.27429E+03 0.10516E+03
 0.10000E+01 0.22553E-03 0.10000E+01 0.25000E+01 0.12841E+01 0.27426E+03 0.10550E+03
 0.10000E+01 0.22732E-03 0.10000E+01 0.25200E+01 0.12842E+01 0.27422E+03 0.10583E+03
 0.10000E+01 0.22911E-03 0.10000E+01 0.25400E+01 0.12844E+01 0.27419E+03 0.10616E+03
 0.10000E+01 0.23089E-03 0.10000E+01 0.25600E+01 0.12845E+01 0.27416E+03 0.10647E+03
 0.10000E+01 0.23268E-03 0.10000E+01 0.25800E+01 0.12847E+01 0.27413E+03 0.10678E+03
 0.10000E+01 0.23447E-03 0.10000E+01 0.26000E+01 0.12848E+01 0.27410E+03 0.10707E+03
 0.10000E+01 0.23625E-03 0.10000E+01 0.26200E+01 0.12850E+01 0.27407E+03 0.10736E+03
 0.10000E+01 0.23804E-03 0.10000E+01 0.26400E+01 0.12851E+01 0.27404E+03 0.10764E+03
 0.10000E+01 0.23982E-03 0.10000E+01 0.26600E+01 0.12852E+01 0.27401E+03 0.10792E+03
 0.10000E+01 0.24161E-03 0.10000E+01 0.26800E+01 0.12854E+01 0.27398E+03 0.10818E+03
 0.10000E+01 0.24340E-03 0.10000E+01 0.27000E+01 0.12855E+01 0.27395E+03 0.10844E+03
 0.10000E+01 0.24518E-03 0.10000E+01 0.27200E+01 0.12856E+01 0.27392E+03 0.10869E+03
 0.10000E+01 0.24697E-03 0.10000E+01 0.27400E+01 0.12858E+01 0.27390E+03 0.10893E+03
 0.10000E+01 0.24875E-03 0.10000E+01 0.27600E+01 0.12859E+01 0.27387E+03 0.10916E+03
 0.10000E+01 0.25054E-03 0.10000E+01 0.27800E+01 0.12860E+01 0.27385E+03 0.10939E+03
 0.10000E+01 0.25232E-03 0.10000E+01 0.28000E+01 0.12861E+01 0.27382E+03 0.10961E+03
 0.10000E+01 0.25411E-03 0.10000E+01 0.28200E+01 0.12862E+01 0.27380E+03 0.10982E+03
 0.10000E+01 0.25589E-03 0.10000E+01 0.28400E+01 0.12864E+01 0.27377E+03 0.11003E+03
 0.10000E+01 0.25768E-03 0.10000E+01 0.28600E+01 0.12865E+01 0.27375E+03 0.11023E+03
 0.10000E+01 0.25946E-03 0.10000E+01 0.28800E+01 0.12866E+01 0.27373E+03 0.11042E+03
 0.10000E+01 0.26124E-03 0.10000E+01 0.29000E+01 0.12867E+01 0.27370E+03 0.11061E+03
 0.10000E+01 0.26303E-03 0.10000E+01 0.29200E+01 0.12868E+01 0.27368E+03 0.11079E+03
 0.10000E+01 0.26481E-03 0.10000E+01 0.29400E+01 0.12869E+01 0.27366E+03 0.11096E+03
 0.10000E+01 0.26660E-03 0.10000E+01 0.29600E+01 0.12870E+01 0.27364E+03 0.11113E+03
 0.10000E+01 0.26838E-03 0.10000E+01 0.29800E+01 0.12871E+01 0.27362E+03 0.11129E+03
 0.10000E+01 0.27016E-03 0.10000E+01 0.30000E+01 0.12872E+01 0.27360E+03 0.11145E+03
 0.10000E+01 0.27195E-03 0.10000E+01 0.30200E+01 0.12873E+01 0.27358E+03 0.11160E+03
 0.10000E+01 0.27373E-03 0.10000E+01 0.30400E+01 0.12874E+01 0.27356E+03 0.11175E+03
 0.10000E+01 0.27551E-03 0.10000E+01 0.30600E+01 0.12875E+01 0.27354E+03 0.11189E+03
 0.10000E+01 0.27730E-03 0.10000E+01 0.30800E+01 0.12875E+01 0.27352E+03 0.11202E+03
 0.10000E+01 0.27908E-03 0.10000E+01 0.31000E+01 0.12876E+01 0.27350E+03 0.11215E+03
 0.10000E+01 0.28086E-03 0.10000E+01 0.31200E+01 0.12877E+01 0.27349E+03 0.11228E+03
 0.10000E+01 0.28264E-03 0.10000E+01 0.31400E+01 0.12878E+01 0.27347E+03 0.11240E+03
 0.10000E+01 0.28443E-03 0.10000E+01 0.31600E+01 0.12879E+01 0.27345E+03 0.11251E+03
 0.10000E+01 0.28621E-03 0.10000E+01 0.31800E+01 0.12879E+01 0.27344E+03 0.11263E+03
 0.10000E+01 0.28799E-03 0.10000E+01 0.32000E+01 0.12880E+01 0.27342E+03 0.11273E+03
 0.10000E+01 0.28977E-03 0.10000E+01 0.32200E+01 0.12881E+01 0.27341E+03 0.11284E+03
 0.10000E+01 0.29155E-03 0.10000E+01 0.32400E+01 0.12881E+01 0.27339E+03 0.11294E+03
 0.10000E+01 0.29334E-03 0.10000E+01 0.32600E+01 0.12882E+01 0.27338E+03 0.11303E+03
 0.10000E+01 0.29512E-03 0.10000E+01 0.32800E+01 0.12883E+01 0.27337E+03 0.11312E+03
 0.10000E+01 0.29690E-03 0.10000E+01 0.33000E+01 0.12883E+01 0.27335E+03 0.11321E+03
 0.10000E+01 0.29868E-03 0.10000E+01 0.33200E+01 0.12884E+01 0.27334E+03 0.11329E+03
 0.10000E+01 0.30046E-03 0.10000E+01 0.33400E+01 0.12885E+01 0.27333E+03 0.11337E+03
 0.10000E+01 0.30224E-03 0.10000E+01 0.33600E+01 0.12885E+01 0.27332E+03 0.11345E+03
 0.10000E+01 0.30403E-03 0.10000E+01 0.33800E+01 0.12886E+01 0.27330E+03 0.11352E+03
 0.10000E+01 0.30581E-03 0.10000E+01 0.34000E+01 0.12886E+01 0.27329E+03 0.11360E+03
 0.10000E+01 0.30759E-03 0.10000E+01 0.34200E+01 0.12887E+01 0.27328E+03 0.11366E+03
 0.10000E+01 0.30937E-03 0.10000E+01 0.34400E+01 0.12887E+01 0.27327E+03 0.11373E+03
 0.10000E+01 0.31115E-03 0.10000E+01 0.34600E+01 0.12888E+01 0.27326E+03 0.11379E+03
 0.10000E+01 0.31293E-03 0.10000E+01 0.34801E+01 0.12888E+01 0.27325E+03 0.11385E+03
 0.10000E+01 0.31471E-03 0.10000E+01 0.35001E+01 0.12889E+01 0.27324E+03 0.11390E+03
 0.10000E+01 0.31649E-03 0.10000E+01 0.35201E+01 0.12889E+01 0.27323E+03 0.11396E+03
 0.10000E+01 0.31827E-03 0.10000E+01 0.35401E+01 0.12890E+01 0.27322E+03 0.11401E+03
 0.10000E+01 0.32006E-03 0.10000E+01 0.35601E+01 0.12890E+01 0.27321E+03 0.11406E+03
 0.10000E+01 0.32184E-03 0.10000E+01 0.35801E+01 0.12890E+01 0.27321E+03 0.11411E+03
 0.10000E+01 0.32362E-03 0.10000E+01 0.36001E+01 0.12891E+01 0.27320E+03 0.11415E+03
 0.10000E+01 0.32540E-03 0.10000E+01 0.36201E+01 0.12891E+01 0.27319E+03 0.11419E+03
 0.10000E+01 0.32718E-03 0.10000E+01 0.36401E+01 0.12891E+01 0.27318E+03 0.11423E+03
 0.10000E+01 0.32896E-03 0.10000E+01 0.36601E+01 0.12892E+01 0.27317E+03 0.11427E+03
 0.10000E+01 0.33074E-03 0.10000E+01 0.36801E+01 0.12892E+01 0.27317E+03 0.11431E+03
 0.10000E+01 0.33252E-03 0.10000E+01 0.37001E+01 0.12892E+01 0.27316E+03 0.11434E+03
 0.10000E+01 0.33430E-03 0.10000E+01 0.37201E+01 0.12893E+01 0.27315E+03 0.11438E+03
 0.10000E+01 0.33608E-03 0.10000E+01 0.37401E+01 0.12893E+01 0.27315E+03 0.11441E+03
 0.10000E+01 0.33786E-03 0.10000E+01 0.37601E+01 0.12893E+01 0.27314E+03 0.11444E+03
 0.10000E+01 0.33964E-03 0.10000E+01 0.37801E+01 0.12894E+01 0.27313E+03 0.11447E+03
 0.10000E+01 0.34142E-03 0.10000E+01 0.38001E+01 0.12894E+01 0.27313E+03 0.11450E+03
 0.10000E+01 0.34320E-03 0.10000E+01 0.38201E+01 0.12894E+01 0.27312E+03 0.11452E+03
 0.10000E+01 0.34498E-03 0.10000E+01 0.38401E+01 0.12894E+01 0.27312E+03 0.11455E+03
 0.10000E+01 0.34676E-03 0.10000E+01 0.38601E+01 0.12895E+01 0.27311E+03 0.11457E+03
 0.10000E+01 0.34854E-03 0.10000E+01 0.38801E+01 0.12895E+01 0.27311E+03 0.11459E+03
 0.10000E+01 0.35032E-03 0.10000E+01 0.39001E+01 0.12895E+01 0.27310E+03 0.11461E+03
 0.10000E+01 0.35210E-03 0.10000E+01 0.39201E+01 0.12895E+01 0.27310E+03 0.11463E+03
 0.10000E+01 0.35388E-03 0.10000E+01 0.39401E+01 0.12896E+01 0.27309E+03 0.11465E+03
 0.10000E+01 0.35566E-03 0.10000E+01 0.39601E+01 0.12896E+01 0.27309E+03 0.11467E+03
 0.10000E+01 0.35744E-03 0.10000E+01 0.39801E+01 0.12896E+01 0.27309E+03 0.11469E+03
 0.10000E+01 0.35922E-03 0.10000E+01 0.40001E+01 0.12896E+01 0.27308E+03 0.11470E+03
 0.10000E+01 0.36100E-03 0.10000E+01 0.40201E+01 0.12896E+01 0.27308E+03 0.11472E+03
 0.10000E+01 0.36278E-03 0.10000E+01 0.40401E+01 0.12896E+01 0.27307E+03 0.11473E+03
 0.10000E+01 0.36456E-03 0.10000E+01 0.40601E+01 0.12897E+01 0.27307E+03 0.11474E+03
 0.10000E+01 0.36634E-03 0.10000E+01 0.40801E+01 0.12897E+01 0.27307E+03 0.11476E+03
 0.10000E+01 0.36812E-03 0.10000E+01 0.41001E+01 0.12897E+01 0.27306E+03 0.11477E+03
 0.10000E+01 0.36990E-03 0.10000E+01 0.41201E+01 0.12897E+01 0.27306E+03 0.11478E+03
 0.10000E+01 0.37168E-03 0.10000E+01 0.41401E+01 0.12897E+01 0.27306E+03 0.11479E+03
 0.10000E+01 0.37346E-03 0.10000E+01 0.41601E+01 0.12897E+01 0.27306E+03 0.11480E+03
 0.10000E+01 0.37524E-03 0.10000E+01 0.41801E+01 0.12897E+01 0.27305E+03 0.11481E+03
 0.10000E+01 0.37702E-03 0.10000E+01 0.42001E+01 0.12898E+01 0.27305E+03 0.11482E+03
 0.10000E+01 0.37880E-03 0.10000E+01 0.42201E+01 0.12898E+01 0.27305E+03 0.11483E+03
 0.10000E+01 0.38058E-03 0.10000E+01 0.42401E+01 0.12898E+01 0.27305E+03 0.11483E+03
 0.10000E+01 0.38236E-03 0.10000E+01 0.42601E+01 0.12898E+01 0.27304E+03 0.11484E+03
 0.10000E+01 0.38414E-03 0.10000E+01 0.42801E+01 0.12898E+01 0.27304E+03 0.11485E+03
 0.10000E+01 0.38592E-03 0.10000E+01 0.43001E+01 0.12898E+01 0.27304E+03 0.11486E+03
 0.10000E+01 0.38770E-03 0.10000E+01 0.43201E+01 0.12898E+01 0.27304E+03 0.11486E+03
 0.10000E+01 0.38948E-03 0.10000E+01 0.43401E+01 0.12898E+01 0.27304E+03 0.11487E+03
 0.10000E+01 0.39126E-03 0.10000E+01 0.43600E+01 0.12898E+01 0.27303E+03 0.11487E+03
 0.10000E+01 0.39304E-03 0.10000E+01 0.43800E+01 0.12899E+01 0.27303E+03 0.11488E+03
 0.10000E+01 0.39482E-03 0.10000E+01 0.44000E+01 0.12899E+01 0.27303E+03 0.11488E+03
 0.10000E+01 0.39660E-03 0.10000E+01 0.44200E+01 0.12899E+01 0.27303E+03 0.11489E+03
 0.10000E+01 0.39838E-03 0.10000E+01 0.44400E+01 0.12899E+01 0.27303E+03 0.11489E+03
 0.10000E+01 0.40016E-03 0.10000E+01 0.44600E+01 0.12899E+01 0.27303E+03 0.11490E+03
 0.10000E+01 0.40194E-03 0.10000E+01 0.44800E+01 0.12899E+01 0.27302E+03 0.11490E+03
 0.10000E+01 0.40372E-03 0.10000E+01 0.45000E+01 0.12899E+01 0.27302E+03 0.11490E+03
 0.10000E+01 0.40550E-03 0.10000E+01 0.45200E+01 0.12899E+01 0.27302E+03 0.11491E+03
 0.10000E+01 0.40728E-03 0.10000E+01 0.45400E+01 0.12899E+01 0.27302E+03 0.11491E+03
 0.10000E+01 0.40906E-03 0.10000E+01 0.45600E+01 0.12899E+01 0.27302E+03 0.11491E+03
 0.10000E+01 0.41083E-03 0.10000E+01 0.45800E+01 0.12899E+01 0.27302E+03 0.11492E+03
 0.10000E+01 0.41261E-03 0.10000E+01 0.46000E+01 0.12899E+01 0.27302E+03 0.11492E+03
 0.10000E+01 0.41439E-03 0.10000E+01 0.46200E+01 0.12899E+01 0.27302E+03 0.11492E+03
 0.10000E+01 0.41617E-03 0.10000E+01 0.46400E+01 0.12899E+01 0.27302E+03 0.11492E+03
 0.10000E+01 0.41795E-03 0.10000E+01 0.46600E+01 0.12899E+01 0.27301E+03 0.11492E+03
 0.10000E+01 0.41973E-03 0.10000E+01 0.46800E+01 0.12899E+01 0.27301E+03 0.11493E+03
 0.10000E+01 0.42151E-03 0.10000E+01 0.47000E+01 0.12899E+01 0.27301E+03 0.11493E+03
 0.10000E+01 0.42329E-03 0.10000E+01 0.47200E+01 0.12899E+01 0.27301E+03 0.11493E+03
 0.10000E+01 0.42507E-03 0.10000E+01 0.47400E+01 0.12899E+01 0.27301E+03 0.11493E+03
 0.10000E+01 0.42685E-03 0.10000E+01 0.47600E+01 0.12900E+01 0.27301E+03 0.11493E+03
 0.10000E+01 0.42863E-03 0.10000E+01 0.47800E+01 0.12900E+01 0.27301E+03 0.11493E+03
 0.10000E+01 0.43041E-03 0.10000E+01 0.48000E+01 0.12900E+01 0.27301E+03 0.11493E+03
